192
Lattice="8.43116035 0.0 0.0 0.158219155128 14.5042431863 0.0 1.16980663624 4.4685149855 14.9100096405"  Properties=species:S:1:pos:R:3:CS:R:2  ENERGY=-2069.84934116 Natoms=192 NAME=COBHUW
O	2.33827271799	4.55315540425	11.5841360926	
O	7.42092185454	14.4195943364	3.32587354791	
O	3.46522376617	6.02661871166	10.3270669467	
O	6.29397080636	12.946131029	4.58293426261	
C	3.24898979667	16.9696746647	12.5382820783	
C	6.51020477586	2.00308350711	2.37172756226	
C	2.20865205877	17.6040183071	11.6052139935	
C	7.55054251376	1.36873143354	3.30479564703	
C	3.32376575782	3.66412326999	9.62482717003	
C	6.43542881471	15.3086349019	5.28518247048	
C	2.4150974511	17.1924343523	10.1317422549	
C	7.34408869027	1.78031538835	4.7782673856	
C	3.29430728356	3.99669038999	8.15397752233	
C	6.46488728897	14.9760677819	6.75603211818	
C	8.78392009904	15.9585340351	12.018728684	
C	0.975274473486	3.01421570557	2.8912809565	
C	3.08014737951	4.88853010066	10.5028735024	
C	6.67904719303	14.08421964	4.40713613815	
C	3.64335732205	15.6315736367	12.3870186304	
C	6.11583725048	3.3411845351	2.52298257894	
C	8.08876249703	3.81985523281	11.2301791188	
C	1.67042364434	15.152902939	3.67983052172	
C	9.15990769485	17.4429915756	12.0935552321	
C	0.599286877678	1.52975816506	2.8164544084	
C	3.8576436935	17.7317588176	13.549009581	
C	5.90155087903	1.24099092308	1.3610000595	
C	4.4569474335	3.90896416655	7.38121108929	
C	5.30223870787	15.0637855741	7.52879855122	
C	2.10882712022	4.43916611632	7.55136876748	
C	7.65036745231	14.5335836244	7.35863244188	
C	9.01334040333	17.9184078454	13.5480821534	
C	0.745854169202	1.05434189525	1.36192748714	
C	3.24645201741	4.67071107301	5.43169074388	
C	6.51274255512	14.3020386677	9.47831889663	
C	4.43702460159	4.24669958785	6.02555638546	
C	5.32216997094	14.726058584	8.88445325506	
C	7.33184664544	3.35210288775	10.0085461399	
C	2.42734792709	15.6206468529	4.90146350063	
C	2.07959628729	4.77196087766	6.19737500223	
C	7.67958985408	14.2007972942	8.71263463828	
C	4.64802282051	15.0874349789	13.1925232591	
C	5.11116332086	3.88532319293	1.71748638142	
C	5.26719880546	15.8644001298	14.17344661	
C	4.49199576707	3.10834961088	0.736563030497	
C	4.85404665482	17.1857231487	14.3591682102	
C	4.90514791771	1.78702659198	0.550841430307	
C	6.5874257735	3.71046092727	11.2777983125	
C	3.17176879903	15.2622888134	3.6322028969	
O	3.13926667588	11.8490262885	11.538253718	
O	6.61991946549	7.1237234522	3.37175592253	
O	2.15343638963	13.3969451729	10.2568691057	
O	7.60574975173	5.57580456775	4.65314053484	
C	2.19664608643	11.3546230456	8.06806399837	
C	7.5625484861	7.61812669513	6.84193721099	
C	3.43587489699	10.3992039547	11.5132553275	
C	6.32331967554	8.57354578599	3.39674588181	
C	2.18554224825	11.0287165422	9.5391834432	
C	7.57364389312	7.94403319846	5.37082619732	
C	2.40762744303	9.70427399401	12.4113593903	
C	7.35155869834	9.26847574668	2.49865025017	
C	3.24408286135	10.0301552039	10.0255180657	
C	6.51510328002	8.94259453683	4.88449157485	
C	2.15191878077	8.33167265787	12.2702217661	
C	7.60727579176	10.6410770828	2.63978787442	
C	2.46216861933	12.2348867731	10.4328021287	
C	7.29701752204	6.73786296763	4.47720751182	
C	2.21871043306	11.9647692578	5.33033976532	
C	7.54048413947	7.00798048292	9.5796698752	
C	5.82744097955	11.1459771204	11.1679571554	
C	3.93175359298	7.82678105147	3.74204405394	
C	3.36188303376	11.8374924611	7.45597018812	
C	6.39731153877	7.13525727956	7.4540394524	
C	1.04089419449	11.1933771039	7.29547461969	
C	8.71830037804	7.77937263682	7.61453502082	
C	5.32149547811	8.77331369932	11.9377305265	
C	4.43769909442	10.1994444725	2.97227911399	
C	3.37802870583	12.138400574	6.09419446187	
C	6.38115743554	6.83435759783	8.81581517865	
C	5.02829344578	10.7200011749	13.4757765222	
C	4.73089269559	8.25274856583	1.4342331183	
C	4.91524001664	10.2487498983	12.0164775642	
C	4.84395455589	8.72399984244	2.89353207632	
C	1.04865086201	11.4989392173	5.93203795485	
C	8.71053527936	7.47381052342	8.97797168566	
C	6.58176846491	10.6958374693	9.93754733857	
C	3.17742610762	8.2769122714	4.97246230194	
C	1.69003452332	10.4163529349	13.3837757005	
C	8.06916004921	8.556405237	1.52622550888	
C	1.20604376343	7.69123328652	13.0731043039	
C	8.5531508091	11.2815164542	1.83689690545	
C	7.32984846044	11.0405454602	11.2079798736	
C	2.42934611209	7.93221271165	3.70202976692	
C	8.92491439358	8.40923090193	14.0355043955	
C	0.834280178953	10.5635188388	0.874505244983	
C	9.17268933394	9.77509574095	14.1836145894	
C	0.586505238587	9.19765399974	0.726395051115	
H	2.94261829188	8.98786986791	9.8870615504	
H	6.81656784949	9.98487987278	5.02294809012	
H	2.70478368956	16.1441123056	10.0207544601	
H	7.05440245181	2.8286374351	4.88925518045	
H	1.48004804364	17.3468257607	9.58058887168	
H	8.27914652889	1.62592398002	5.32941233768	
H	3.40176242222	4.26578773488	13.6901050495	
H	6.35743215031	14.706970437	1.21989615988	
H	9.14200834143	4.46926535877	13.6550398536	
H	0.617186231101	14.5034928131	1.25496978694	
H	6.55085983106	9.63997796518	9.6649594933	
H	3.20833474147	9.33278020667	5.24505014722	
H	5.18281132151	8.35640968234	10.9322809301	
H	4.57638325102	10.6163484895	3.97772027921	
H	5.3825455102	3.57536001382	7.85257197098	
H	4.37664906233	15.3973897269	7.05742923837	
H	7.52701957639	16.7987834756	9.74588177034	
H	2.23217499614	2.17396626509	5.16412787018	
H	1.17831367703	10.6764289382	9.82548878636	
H	8.5808808955	8.29632923368	5.08452085415	
H	7.26555243161	4.04014459044	9.16315369159	
H	2.49364214092	14.9326051503	5.74685594893	
H	7.96131707718	17.8156320008	13.8462164145	
H	1.79787749535	1.15711773992	1.063793226	
H	1.85794951285	11.4857360202	13.5009856917	
H	7.90123662852	7.48701372053	1.40901551769	
H	5.46332445752	12.1730273496	11.1181711535	
H	4.29586168385	6.79972239111	3.79183005581	
H	4.38637019021	10.1242722468	14.13900532	
H	5.37281595116	8.84847749384	0.771004320526	
H	8.93200499943	15.5425574458	11.0141812218	
H	0.827189573099	3.43019229492	3.89582841873	
H	4.33159294142	3.30295765407	9.89513017085	
H	5.42760163111	15.6697920866	5.01487946966	
H	6.05845477314	15.4433901377	14.7941402038	
H	3.70073136823	3.52936803411	0.11586100553	
H	4.14454764905	13.3327924738	0.224496506639	
H	5.61463849232	5.63995726685	14.6855131339	
H	2.69409297824	7.73516806311	11.537360015	
H	7.06510159429	11.2375816776	3.37264962553	
H	7.78284627489	10.2148987894	11.7588718909	
H	1.97634829764	8.7578593824	3.15113774965	
H	8.44690132637	4.84776544036	11.1683871446	
H	1.31229324616	14.1249843003	3.74162249592	
H	6.63619160497	11.3930607056	9.09898413016	
H	3.12300296756	7.57968903509	5.81102551035	
H	9.38924368753	15.3778800218	12.7270051715	
H	0.369942453837	3.59487815003	2.18300446898	
H	4.18161102995	10.1924803341	9.48069648385	
H	5.57758354258	8.78026940661	5.42931315667	
H	1.03259793271	6.62218744762	12.9349344481	
H	0.295436289824	12.3505622931	1.97507519243	
H	6.29594369788	17.3966117625	11.8440097481	
H	3.46324244349	1.57613797815	3.06599989244	
H	3.16806751963	14.9946584904	11.6403887945	
H	6.5911270529	3.97809125026	3.26962084605	
H	7.90039351249	11.9700724576	11.2451781531	
H	1.85879262888	7.00267728306	3.66483148746	
H	3.22199322123	4.91758387922	4.36922121006	
H	6.53719292014	14.0551658615	10.5407884305	
H	1.20031057439	4.53926928316	8.14888510148	
H	8.55888399814	14.4334804575	6.76112453903	
H	7.72951918567	15.8275981149	12.2972773597	
H	2.02967538686	3.1451516258	2.6127238497	
H	4.72671927122	8.17560344863	12.6394728648	
H	5.03246687015	10.7971547232	2.27053677574	
H	4.26545048847	11.9938904856	8.04945642747	
H	5.4937356529	6.97886768623	6.86055321304	
H	8.56152295133	10.82590498	7.77100049459	
H	1.19766319004	8.14685319184	7.13900071476	
H	1.14581155389	5.11049725919	5.74684751777	
H	8.61337458748	13.8622609127	9.16316212275	
H	9.62506324252	17.3155124311	14.2310398664	
H	0.134131330008	1.65724574072	0.678969774146	
H	5.35457935132	4.18887025901	5.43811528807	
H	4.40461522121	14.7838794817	9.47189435244	
H	8.57121035457	11.3810041463	5.34023794757	
H	1.18798421796	7.59174559439	9.56977169295	
H	8.61014545307	10.3516690726	14.9197729242	
H	1.14904911946	8.62108066804	-0.0097632836853	
H	2.23036229667	12.191188069	4.26341857883	
H	7.5288238447	6.78156167172	10.6465910617	
H	6.01934262028	4.64170788141	11.2998120721	
H	3.73984352109	14.3310502904	3.61019756839	
H	6.06868177065	10.6132120979	13.8096841967	
H	3.69050437072	8.35953764283	1.1003254438	
H	6.37709361625	8.6610865239	12.2191289344	
H	3.38210095628	10.3116632168	2.69088070615	
H	4.74051264955	11.7758438166	13.574193457	
H	5.01868192298	7.1969143552	1.33581618353	
H	4.29613991214	12.5068338502	5.6345023061	
H	5.46305466039	6.4659243217	9.27550733441	
H	4.9435940089	14.0465239221	13.0467737901	
H	4.81559213247	4.92622581858	1.86322741923	
H	8.1801815687	7.91593214101	14.6607170913	
H	1.57901300383	11.0568175997	0.249292549229	